ITEM: TIMESTEP
0
ITEM: NUMBER OF ATOMS
4000
ITEM: BOX BOUNDS pp pp pp
0.0000000000000000e+00 1.6795961913825074e+01
0.0000000000000000e+00 1.6795961913825074e+01
0.0000000000000000e+00 1.6795961913825074e+01
ITEM: ATOMS id type xs ys zs vx vy vz
1 1 0 0 0 -0.131539 -0.822671 -2.38716
2 1 0.05 0.05 0 -1.44682 1.69988 1.87369
3 1 0.05 0 0.05 -1.45341 -0.812501 1.3097
4 1 0 0.05 0.05 2.04503 2.2335 -0.800844
5 1 0.1 0 0 -0.99337 -0.740604 -0.270867
6 1 0.15 0.05 0 -0.847923 -0.693598 -2.1123
7 1 0.15 0 0.05 0.568398 -1.92769 -2.41595
8 1 0.1 0.05 0.05 -1.78073 1.74228 1.34746
9 1 0.2 0 0 -1.3555 1.94752 -1.91809
10 1 0.25 0.05 0 1.2827 2.34477 0.274396
11 1 0.25 0 0.05 0.599093 -2.47818 2.0856
12 1 0.2 0.05 0.05 0.490622 -0.800026 -0.525647
13 1 0.3 0 0 -1.70854 0.176177 -1.46901
14 1 0.35 0.05 0 -0.637454 0.29406 -2.33847
15 1 0.35 0 0.05 2.18153 -0.498966 -1.70458
16 1 0.3 0.05 0.05 2.18277 0.665057 1.31502
17 1 0.4 0 0 2.21362 -2.30284 -2.02981
18 1 0.45 0.05 0 -0.692307 -1.87989 -0.642681
19 1 0.45 0 0.05 2.08859 1.51297 -1.50426
20 1 0.4 0.05 0.05 1.93914 -1.88317 -1.72755
21 1 0.5 0 0 -0.961568 -0.449278 -0.154746
22 1 0.55 0.05 0 0.489005 0.229643 0.276842
23 1 0.55 0 0.05 1.13264 0.522446 0.65175
24 1 0.5 0.05 0.05 0.564264 0.319825 -0.780699
25 1 0.6 0 0 0.0964256 0.23911 -1.16981
26 1 0.65 0.05 0 -0.928228 -0.861913 1.2015
27 1 0.65 0 0.05 0.36058 0.810481 -0.0871425
28 1 0.6 0.05 0.05 1.10483 -0.101865 -0.910693
29 1 0.7 0 0 -0.912207 -0.848813 -0.945212
30 1 0.75 0.05 0 -0.815969 1.05962 0.148936
31 1 0.75 0 0.05 -0.949257 -1.03742 0.996516
32 1 0.7 0.05 0.05 0.525087 -1.03155 0.763149
33 1 0.8 0 0 1.2111 0.0306065 -0.176707
34 1 0.85 0.05 0 0.921259 0.0613222 -0.223267
35 1 0.85 0 0.05 -0.649218 -0.110667 -0.625893
36 1 0.8 0.05 0.05 -0.319349 0.711834 -0.482484
37 1 0.9 0 0 0.423606 0.341429 -0.802193
38 1 0.95 0.05 0 -1.03745 -1.07447 0.685493
39 1 0.95 0 0.05 0.157351 -0.951335 0.206562
40 1 0.9 0.05 0.05 -0.977655 0.910228 -0.946323
41 1 0 0.1 0 0.923542 0.873427 1.439
42 1 0.05 0.15 0 1.7906 0.192744 1.54068
43 1 0.05 0.1 0.05 0.629194 1.7483 -0.734066
44 1 0 0.15 0.05 1.36422 0.0686344 1.0628
45 1 0.1 0.1 0 1.05829 -1.82135 -0.560911
46 1 0.15 0.15 0 -1.9315 0.77543 2.09661
47 1 0.15 0.1 0.05 0.366654 1.08969 1.40879
48 1 0.1 0.15 0.05 0.31678 -0.994834 1.03671
49 1 0.2 0.1 0 0.391231 1.01012 1.84404
50 1 0.25 0.15 0 1.89286 2.27988 1.50794
51 1 0.25 0.1 0.05 -1.49466 -0.58709 -2.34
52 1 0.2 0.15 0.05 1.25991 -1.98184 2.31436
53 1 0.3 0.1 0 1.1846 1.1551 -0.893621
54 1 0.35 0.15 0 -0.1491 -0.864201 -1.95885
55 1 0.35 0.1 0.05 2.48318 -1.68773 -2.42289
56 1 0.3 0.15 0.05 1.14589 -0.16776 2.09857
57 1 0.4 0.1 0 0.308139 1.32033 2.10357
58 1 0.45 0.15 0 1.51715 -1.84197 2.14712
59 1 0.45 0.1 0.05 -1.52779 -1.61625 -1.2846
60 1 0.4 0.15 0.05 0.370889 -1.50415 -0.955198
61 1 0.5 0.1 0 0.896365 -0.867785 -1.14969
62 1 0.55 0.15 0 -0.368676 -0.781881 0.00370673
63 1 0.55 0.1 0.05 1.05821 -0.501648 -0.924092
64 1 0.5 0.15 0.05 -1.15639 0.719528 0.377347
65 1 0.6 0.1 0 -0.51637 -0.455002 -0.0307311
66 1 0.65 0.15 0 -0.212948 0.508871 -0.249518
67 1 0.65 0.1 0.05 -0.679342 0.00116819 -0.891752
68 1 0.6 0.15 0.05 0.629527 0.408527 0.46893
69 1 0.7 0.1 0 -0.337676 -0.992722 -1.22902
70 1 0.75 0.15 0 0.965264 1.03604 -1.0111
71 1 0.75 0.1 0.05 -0.298242 -0.258662 -0.416148
72 1 0.7 0.15 0.05 0.69326 -0.528618 0.316195
73 1 0.8 0.1 0 -0.39515 -1.08958 1.22312
74 1 0.85 0.15 0 -0.985777 0.266997 0.642475
75 1 0.85 0.1 0.05 0.349318 -0.740823 0.8633
76 1 0.8 0.15 0.05 0.901394 -0.32206 1.20133
77 1 0.9 0.1 0 -0.179179 -0.095135 1.03851
78 1 0.95 0.15 0 -0.676743 -0.783414 -1.06819
79 1 0.95 0.1 0.05 0.997039 -0.976836 -1.0268
80 1 0.9 0.15 0.05 0.75475 0.361416 -0.832372
81 1 0 0.2 0 2.06096 -0.596605 0.051825
82 1 0.05 0.25 0 1.11098 -1.65577 -1.4143
83 1 0.05 0.2 0.05 -1.51967 2.07365 -1.89367
84 1 0 0.25 0.05 0.488594 -0.459196 -2.20084
85 1 0.1 0.2 0 -2.36776 1.91233 1.67689
86 1 0.15 0.25 0 -1.82062 0.132703 0.718671
87 1 0.15 0.2 0.05 -1.81394 -0.651024 0.257743
88 1 0.1 0.25 0.05 -0.148001 -2.05511 0.63154
89 1 0.2 0.2 0 -2.25751 0.543158 -1.35732
90 1 0.25 0.25 0 0.0115741 -0.642655 -1.72468
91 1 0.25 0.2 0.05 -0.202019 -0.0235929 0.313221
92 1 0.2 0.25 0.05 0.88452 -0.817084 -1.9393
93 1 0.3 0.2 0 1.62545 -1.56198 0.911838
94 1 0.35 0.25 0 1.6476 1.90104 -1.15708
95 1 0.35 0.2 0.05 0.555525 -1.88595 0.745653
96 1 0.3 0.25 0.05 -0.416313 -1.35634 -0.49744
97 1 0.4 0.2 0 -0.628061 0.76667 2.42454
98 1 0.45 0.25 0 -0.00069447 -0.265606 0.361166
99 1 0.45 0.2 0.05 -1.5617 -0.954218 0.00575571
100 1 0.4 0.25 0.05 1.68205 0.528817 -1.39019
101 1 0.5 0.2 0 0.0425666 -0.850613 0.907226
102 1 0.55 0.25 0 -0.425416 -0.885621 0.462603
103 1 0.55 0.2 0.05 -0.100019 -1.12902 0.446198
104 1 0.5 0.25 0.05 0.451483 -0.480312 -0.530708
105 1 0.6 0.2 0 -1.00071 -1.15626 -0.37463
106 1 0.65 0.25 0 0.951455 1.14913 0.169298
107 1 0.65 0.2 0.05 -0.426252 -0.129574 0.260977
108 1 0.6 0.25 0.05 0.582684 1.12325 -0.0304589
109 1 0.7 0.2 0 -0.937477 -0.677771 0.828087
110 1 0.75 0.25 0 0.616974 -0.606655 0.458654
111 1 0.75 0.2 0.05 -0.83323 -0.0182488 -1.15694
112 1 0.7 0.25 0.05 0.132847 -0.250443 -0.625826
113 1 0.8 0.2 0 0.465365 0.619249 -0.287676
114 1 0.85 0.25 0 -0.294047 1.08127 0.882462
115 1 0.85 0.2 0.05 -0.961711 -0.381608 0.844365
116 1 0.8 0.25 0.05 0.707266 0.193962 0.861769
117 1 0.9 0.2 0 1.11656 -0.536389 0.627189
118 1 0.95 0.25 0 -1.19994 0.0435017 -0.830207
119 1 0.95 0.2 0.05 -1.07166 -0.552568 0.448812
120 1 0.9 0.25 0.05 1.16043 0.594078 -0.924903
121 1 0 0.3 0 -0.955831 0.616314 -1.45214
122 1 0.05 0.35 0 -2.13396 1.50068 -1.47966
123 1 0.05 0.3 0.05 -1.09276 1.12335 1.55694
124 1 0 0.35 0.05 2.46742 -0.902837 -2.07751
125 1 0.1 0.3 0 1.03729 -0.570997 -2.38043
126 1 0.15 0.35 0 0.543874 -0.956723 2.16839
127 1 0.15 0.3 0.05 1.19528 -1.29349 -1.6349
128 1 0.1 0.35 0.05 -1.27818 -1.94345 -1.59245
129 1 0.2 0.3 0 -0.177247 -1.75898 0.157499
130 1 0.25 0.35 0 1.84885 0.43092 0.948788
131 1 0.25 0.3 0.05 2.44284 -0.945712 0.33157
132 1 0.2 0.35 0.05 -1.27866 -0.0979708 -0.465974
133 1 0.3 0.3 0 -1.90075 1.07473 0.834761
134 1 0.35 0.35 0 2.49173 -0.678265 -0.155615
135 1 0.35 0.3 0.05 -2.13863 1.74041 -0.60486
136 1 0.3 0.35 0.05 -0.713927 -1.28037 -2.44514
137 1 0.4 0.3 0 1.23374 0.724153 1.018
138 1 0.45 0.35 0 1.07628 0.447606 1.03676
139 1 0.45 0.3 0.05 -1.02059 -0.749932 0.355941
140 1 0.4 0.35 0.05 0.193688 0.868378 0.194263
141 1 0.5 0.3 0 0.71175 -1.02966 0.396065
142 1 0.55 0.35 0 -0.0983903 -0.922904 -1.17607
143 1 0.55 0.3 0.05 0.668807 1.01174 0.724622
144 1 0.5 0.35 0.05 0.0499382 -0.469834 0.19282
145 1 0.6 0.3 0 -1.0455 -0.516125 0.310601
146 1 0.65 0.35 0 1.09441 0.197317 0.434874
147 1 0.65 0.3 0.05 -0.525942 -0.772165 0.261706
148 1 0.6 0.35 0.05 0.111273 0.286166 -0.781073
149 1 0.7 0.3 0 0.60485 0.659441 0.822708
150 1 0.75 0.35 0 0.0644152 0.759712 -1.11719
151 1 0.75 0.3 0.05 -0.996999 -0.604066 -0.489333
152 1 0.7 0.35 0.05 0.163215 -1.20038 -0.872565
153 1 0.8 0.3 0 1.168 -0.507893 0.328224
154 1 0.85 0.35 0 -0.303215 0.15201 -0.19106
155 1 0.85 0.3 0.05 -1.06249 0.389958 -0.367615
156 1 0.8 0.35 0.05 -0.884363 0.231957 -0.353146
157 1 0.9 0.3 0 0.922271 -0.235234 0.562369
158 1 0.95 0.35 0 -1.09548 -0.762965 -0.740832
159 1 0.95 0.3 0.05 -0.63501 -0.929708 0.571635
160 1 0.9 0.35 0.05 0.638893 -0.288607 0.234985
161 1 0 0.4 0 -0.762457 -0.455564 -0.1748
162 1 0.05 0.45 0 1.64642 1.60686 -2.40898
163 1 0.05 0.4 0.05 1.78587 -0.740201 1.59322
164 1 0 0.45 0.05 1.98797 2.327 1.62238
165 1 0.1 0.4 0 -2.24327 -1.10561 -1.6614
166 1 0.15 0.45 0 -1.38348 -0.986351 0.975818
167 1 0.15 0.4 0.05 -2.37644 -1.35814 -1.25469
168 1 0.1 0.45 0.05 1.72545 1.93969 -0.767955
169 1 0.2 0.4 0 0.986154 0.639265 0.657655
170 1 0.25 0.45 0 0.518152 -0.449343 1.085
171 1 0.25 0.4 0.05 2.20967 0.166351 0.621651
172 1 0.2 0.45 0.05 1.85214 1.60876 0.0249326
173 1 0.3 0.4 0 -0.804889 -0.426791 1.39999
174 1 0.35 0.45 0 0.245426 -0.150199 2.14248
175 1 0.35 0.4 0.05 1.51257 -0.17894 1.10233
176 1 0.3 0.45 0.05 2.1758 1.48798 1.42016
177 1 0.4 0.4 0 0.250752 0.839896 -1.40598
178 1 0.45 0.45 0 -2.29584 0.788136 -0.765761
179 1 0.45 0.4 0.05 2.44288 -0.321883 -1.13711
180 1 0.4 0.45 0.05 -1.12286 1.76787 -1.45714
181 1 0.5 0.4 0 1.13711 -0.894125 0.810714
182 1 0.55 0.45 0 -0.613026 0.475875 0.999274
183 1 0.55 0.4 0.05 -1.20791 -0.51631 -0.320027
184 1 0.5 0.45 0.05 1.23734 -1.18762 1.09306
185 1 0.6 0.4 0 -0.162523 0.708489 0.105631
186 1 0.65 0.45 0 0.218794 -0.844027 0.444087
187 1 0.65 0.4 0.05 -0.444552 1.10054 1.16757
188 1 0.6 0.45 0.05 -0.391181 -1.07726 0.847587
189 1 0.7 0.4 0 -0.963967 1.21922 -0.261205
190 1 0.75 0.45 0 -0.74121 0.176502 -1.08602
191 1 0.75 0.4 0.05 0.921006 0.740332 -0.759196
192 1 0.7 0.45 0.05 -0.143283 0.469393 0.74391
193 1 0.8 0.4 0 1.03929 0.15185 -0.406042
194 1 0.85 0.45 0 -0.796425 0.994133 1.19468
195 1 0.85 0.4 0.05 0.298961 0.220037 -0.589308
196 1 0.8 0.45 0.05 0.993233 -0.702161 0.969896
197 1 0.9 0.4 0 0.454878 -0.240423 -0.193447
198 1 0.95 0.45 0 -0.329167 1.21363 -0.226861
199 1 0.95 0.4 0.05 -0.396178 -1.08088 -0.713978
200 1 0.9 0.45 0.05 -0.87033 -1.04663 -0.714429
201 1 0 0.5 0 1.78344 -2.11445 1.66922
202 1 0.05 0.55 0 1.09035 0.839815 2.14557
203 1 0.05 0.5 0.05 -2.37319 -0.918114 1.83106
204 1 0 0.55 0.05 -1.22626 0.111658 1.14688
205 1 0.1 0.5 0 1.44106 -1.97101 -2.43431
206 1 0.15 0.55 0 0.410168 -0.415613 2.37329
207 1 0.15 0.5 0.05 1.66271 0.023092 -2.00729
208 1 0.1 0.55 0.05 0.296876 -1.07265 1.49401
209 1 0.2 0.5 0 2.14219 2.13923 -1.48382
210 1 0.25 0.55 0 -1.35341 -2.19603 -2.0982
211 1 0.25 0.5 0.05 -2.27949 0.11956 1.16514
212 1 0.2 0.55 0.05 1.95649 -0.606488 1.16509
213 1 0.3 0.5 0 1.50599 2.41299 0.855292
214 1 0.35 0.55 0 0.826883 -0.586536 2.05251
215 1 0.35 0.5 0.05 1.7773 -2.07266 0.636318
216 1 0.3 0.55 0.05 1.62488 -1.27396 1.94532
217 1 0.4 0.5 0 1.18379 2.35166 -1.9403
218 1 0.45 0.55 0 2.40668 1.24523 -1.01488
219 1 0.45 0.5 0.05 -0.737481 1.24423 1.79531
220 1 0.4 0.55 0.05 0.706899 -0.581178 -1.35188
221 1 0.5 0.5 0 1.08367 0.00526632 -1.18207
222 1 0.55 0.55 0 0.623079 0.720535 0.0061649
223 1 0.55 0.5 0.05 -0.473175 -0.73349 0.585724
224 1 0.5 0.55 0.05 -0.324042 0.882381 0.375686
225 1 0.6 0.5 0 -1.13854 -0.657126 -0.504163
226 1 0.65 0.55 0 0.236563 -1.11497 -0.606946
227 1 0.65 0.5 0.05 -0.997115 -0.0769997 -0.476053
228 1 0.6 0.55 0.05 0.217063 -0.302541 0.724813
229 1 0.7 0.5 0 -0.0333699 0.0139744 -0.571935
230 1 0.75 0.55 0 0.164468 0.0931223 0.662033
231 1 0.75 0.5 0.05 -0.71746 -0.848341 -0.420962
232 1 0.7 0.55 0.05 0.920498 -0.376618 0.728931
233 1 0.8 0.5 0 -1.06404 -0.92612 -0.893713
234 1 0.85 0.55 0 1.02201 -1.19798 -0.0866433
235 1 0.85 0.5 0.05 -1.07129 0.825306 -0.406471
236 1 0.8 0.55 0.05 -0.931922 -1.1835 -1.19671
237 1 0.9 0.5 0 0.0134763 -0.658085 0.678165
238 1 0.95 0.55 0 0.524641 -1.11634 1.11355
239 1 0.95 0.5 0.05 -0.0223886 -0.693577 -0.509309
240 1 0.9 0.55 0.05 0.945911 -0.616083 0.105722
241 1 0 0.6 0 -1.17086 1.64333 0.668974
242 1 0.05 0.65 0 1.36414 -1.23657 0.808112
243 1 0.05 0.6 0.05 -0.797528 0.316514 1.23252
244 1 0 0.65 0.05 -0.0167047 1.16537 -0.511106
245 1 0.1 0.6 0 0.135817 2.08195 -0.227311
246 1 0.15 0.65 0 -1.16409 2.3463 1.44973
247 1 0.15 0.6 0.05 0.615806 -1.94053 -1.65973
248 1 0.1 0.65 0.05 -1.28184 0.510224 0.90199
249 1 0.2 0.6 0 -1.53163 -2.15454 1.67158
250 1 0.25 0.65 0 1.44532 0.844292 -1.29545
251 1 0.25 0.6 0.05 1.22229 0.188036 1.10696
252 1 0.2 0.65 0.05 -0.285934 1.21873 1.1757
253 1 0.3 0.6 0 -1.73074 0.815204 1.65763
254 1 0.35 0.65 0 1.00791 2.25429 -0.643674
255 1 0.35 0.6 0.05 2.1178 0.5392 0.980336
256 1 0.3 0.65 0.05 -1.791 1.26453 -1.24885
257 1 0.4 0.6 0 -1.86978 0.288115 1.03272
258 1 0.45 0.65 0 -2.25594 -2.43891 -1.86169
259 1 0.45 0.6 0.05 -1.9933 -0.128417 -0.654572
260 1 0.4 0.65 0.05 -2.08757 -0.909095 0.949121
261 1 0.5 0.6 0 -0.425922 0.478837 -1.09816
262 1 0.55 0.65 0 -0.422201 -1.19963 -0.522804
263 1 0.55 0.6 0.05 0.696901 -1.0958 0.43272
264 1 0.5 0.65 0.05 0.146467 -1.08467 -0.169179
265 1 0.6 0.6 0 0.403737 -0.110586 0.723317
266 1 0.65 0.65 0 0.408764 0.383151 -1.13776
267 1 0.65 0.6 0.05 -0.93973 0.983181 -0.0736338
268 1 0.6 0.65 0.05 -1.15854 -0.795167 -0.965059
269 1 0.7 0.6 0 -0.324238 0.0682222 -0.358327
270 1 0.75 0.65 0 0.0279261 0.114249 0.0174565
271 1 0.75 0.6 0.05 -0.625101 0.102972 0.697039
272 1 0.7 0.65 0.05 0.53607 0.754753 -0.468395
273 1 0.8 0.6 0 -0.349047 0.573429 0.338134
274 1 0.85 0.65 0 -0.391137 -0.33664 0.723056
275 1 0.85 0.6 0.05 -0.965146 1.17366 -0.232895
276 1 0.8 0.65 0.05 0.00317535 -0.866636 0.868664
277 1 0.9 0.6 0 0.0191163 0.263311 0.444081
278 1 0.95 0.65 0 0.48829 0.560973 0.953828
279 1 0.95 0.6 0.05 0.531784 0.372378 0.597796
280 1 0.9 0.65 0.05 0.359015 -0.795074 0.584094
281 1 0 0.7 0 0.184452 -1.9002 2.34873
282 1 0.05 0.75 0 -1.36773 -1.81971 -2.35052
283 1 0.05 0.7 0.05 -0.0719991 1.42223 -1.80261
284 1 0 0.75 0.05 -1.70037 -0.299248 0.562273
285 1 0.1 0.7 0 -1.18149 0.0864132 -0.155188
286 1 0.15 0.75 0 0.168613 2.42085 0.126816
287 1 0.15 0.7 0.05 -2.11635 -2.46641 -1.77439
288 1 0.1 0.75 0.05 -0.633205 -2.07817 1.50979
289 1 0.2 0.7 0 0.900894 -1.04656 2.21253
290 1 0.25 0.75 0 -0.341661 -0.886988 -1.3016
291 1 0.25 0.7 0.05 0.612325 -1.42406 -2.41828
292 1 0.2 0.75 0.05 1.79618 0.410957 -0.128555
293 1 0.3 0.7 0 -0.8418 -1.07471 1.35229
294 1 0.35 0.75 0 1.72204 -1.18089 2.21856
295 1 0.35 0.7 0.05 1.31888 0.408193 -2.30555
296 1 0.3 0.75 0.05 -1.581 -0.703696 0.329971
297 1 0.4 0.7 0 -2.23366 -1.86242 -2.19102
298 1 0.45 0.75 0 -1.395 2.18744 2.24326
299 1 0.45 0.7 0.05 -1.59248 -1.92854 -1.91293
300 1 0.4 0.75 0.05 2.26446 1.36383 0.307601
301 1 0.5 0.7 0 1.05752 0.246101 0.228221
302 1 0.55 0.75 0 0.874508 -0.145917 -0.219305
303 1 0.55 0.7 0.05 -0.332615 0.0709021 0.218537
304 1 0.5 0.75 0.05 0.577668 0.80688 1.15788
305 1 0.6 0.7 0 0.498187 -1.07413 -0.87239
306 1 0.65 0.75 0 0.536854 -0.883991 0.669974
307 1 0.65 0.7 0.05 0.748477 1.13804 -1.06311
308 1 0.6 0.75 0.05 1.08996 -0.531932 -1.04035
309 1 0.7 0.7 0 0.0502792 0.32145 -0.632893
310 1 0.75 0.75 0 -0.804579 -0.18314 -0.843678
311 1 0.75 0.7 0.05 -0.94767 0.925435 0.201426
312 1 0.7 0.75 0.05 -0.955622 0.674936 -0.590047
313 1 0.8 0.7 0 -0.00562503 -0.558481 -0.126454
314 1 0.85 0.75 0 -1.12496 0.323137 0.540966
315 1 0.85 0.7 0.05 0.00745281 -0.61333 -0.558863
316 1 0.8 0.75 0.05 0.85028 0.25072 -1.18648
317 1 0.9 0.7 0 0.0758914 0.958648 0.124303
318 1 0.95 0.75 0 -0.757385 0.0534569 0.978664
319 1 0.95 0.7 0.05 -0.364437 -1.17854 0.629223
320 1 0.9 0.75 0.05 0.973691 -0.612581 -0.332545
321 1 0 0.8 0 -0.338512 -2.054 -0.377906
322 1 0.05 0.85 0 -0.807276 -1.20674 0.550889
323 1 0.05 0.8 0.05 -0.777422 -1.12321 -2.35497
324 1 0 0.85 0.05 -0.89143 0.945237 -1.57869
325 1 0.1 0.8 0 -1.8375 1.71363 1.84463
326 1 0.15 0.85 0 2.1229 -2.32442 -0.810194
327 1 0.15 0.8 0.05 0.154519 1.61857 -2.32009
328 1 0.1 0.85 0.05 0.314452 -0.781488 1.17664
329 1 0.2 0.8 0 -2.35178 -0.123039 1.19751
330 1 0.25 0.85 0 1.2281 -0.495819 2.00161
331 1 0.25 0.8 0.05 1.99754 0.764864 1.57444
332 1 0.2 0.85 0.05 1.37896 1.95088 0.459247
333 1 0.3 0.8 0 1.67687 1.88468 -0.601172
334 1 0.35 0.85 0 2.45894 -0.904804 -0.712364
335 1 0.35 0.8 0.05 0.501814 0.399229 -0.498181
336 1 0.3 0.85 0.05 1.17964 1.3908 1.01764
337 1 0.4 0.8 0 1.91237 0.608969 -1.93969
338 1 0.45 0.85 0 0.992845 -0.0246308 -2.37497
339 1 0.45 0.8 0.05 -0.896738 0.263824 0.99357
340 1 0.4 0.85 0.05 -0.532684 0.340622 -1.81233
341 1 0.5 0.8 0 0.991641 -0.300786 0.567478
342 1 0.55 0.85 0 -1.19649 1.12023 1.02173
343 1 0.55 0.8 0.05 -1.00884 0.466951 -0.769213
344 1 0.5 0.85 0.05 -0.816426 0.795096 0.729527
345 1 0.6 0.8 0 0.65465 0.226198 -0.800119
346 1 0.65 0.85 0 0.96086 1.12924 -0.635975
347 1 0.65 0.8 0.05 -0.455448 0.757253 -0.444245
348 1 0.6 0.85 0.05 0.28292 -0.123893 -0.603173
349 1 0.7 0.8 0 -0.556975 -1.10474 0.841914
350 1 0.75 0.85 0 0.76603 -0.278456 0.389812
351 1 0.75 0.8 0.05 0.0486259 -0.293195 -0.307521
352 1 0.7 0.85 0.05 -0.116885 -0.504314 1.19292
353 1 0.8 0.8 0 0.455012 -0.462933 0.0768026
354 1 0.85 0.85 0 -0.0354657 -0.625524 -0.47138
355 1 0.85 0.8 0.05 -0.107004 0.047006 -1.22074
356 1 0.8 0.85 0.05 -0.748038 -0.949548 0.598118
357 1 0.9 0.8 0 0.936422 0.470232 0.0379751
358 1 0.95 0.85 0 -0.129159 0.703012 -0.549374
359 1 0.95 0.8 0.05 0.0703204 1.19611 -0.860545
360 1 0.9 0.85 0.05 1.04 -0.23835 0.0716631
361 1 0 0.9 0 1.25783 2.29898 -2.11043
362 1 0.05 0.95 0 -2.38477 1.19749 -1.69107
363 1 0.05 0.9 0.05 -1.78012 2.03536 -1.18885
364 1 0 0.95 0.05 -1.72965 -0.578987 1.0458
365 1 0.1 0.9 0 0.749707 0.796833 -2.1505
366 1 0.15 0.95 0 2.00289 2.1623 -2.30418
367 1 0.15 0.9 0.05 2.05065 -1.67562 -0.676701
368 1 0.1 0.95 0.05 1.28324 1.49782 -0.408316
369 1 0.2 0.9 0 0.287788 -1.34329 2.4196
370 1 0.25 0.95 0 2.11429 0.635128 -0.0257869
371 1 0.25 0.9 0.05 -1.96083 -0.430467 -1.35061
372 1 0.2 0.95 0.05 -0.837197 -2.3948 1.75844
373 1 0.3 0.9 0 1.59631 0.46301 -0.758968
374 1 0.35 0.95 0 -0.768014 -0.396237 -1.51836
375 1 0.35 0.9 0.05 0.715151 0.396226 -1.78377
376 1 0.3 0.95 0.05 2.45527 1.42954 -1.99109
377 1 0.4 0.9 0 -0.961655 1.08915 2.12825
378 1 0.45 0.95 0 -1.55381 -1.18043 0.0590092
379 1 0.45 0.9 0.05 0.284747 1.65559 0.275142
380 1 0.4 0.95 0.05 -1.42953 2.13848 0.631269
381 1 0.5 0.9 0 -0.630258 -0.120078 -0.695806
382 1 0.55 0.95 0 -0.694305 0.481178 1.20306
383 1 0.55 0.9 0.05 -1.11361 0.879219 -0.886031
384 1 0.5 0.95 0.05 0.115618 -0.796284 0.015839
385 1 0.6 0.9 0 -1.09916 -0.843619 -0.11564
386 1 0.65 0.95 0 0.166246 0.330979 -1.052
387 1 0.65 0.9 0.05 0.474119 -0.465503 -1.12405
388 1 0.6 0.95 0.05 -0.670409 -0.54852 -0.696465
389 1 0.7 0.9 0 0.292065 0.416791 1.01874
390 1 0.75 0.95 0 -0.360334 1.0776 0.934724
391 1 0.75 0.9 0.05 0.383485 0.415805 -0.716903
392 1 0.7 0.95 0.05 0.238706 0.325021 0.0882167
393 1 0.8 0.9 0 -0.580178 -0.785693 0.158883
394 1 0.85 0.95 0 -0.983111 0.599161 0.508663
395 1 0.85 0.9 0.05 0.103075 0.830039 0.0801395
396 1 0.8 0.95 0.05 0.0459024 0.867925 -0.496292
397 1 0.9 0.9 0 0.898582 -0.659132 0.37568
398 1 0.95 0.95 0 -1.12539 0.600714 -0.559265
399 1 0.95 0.9 0.05 -0.968603 -0.123607 -0.730005
400 1 0.9 0.95 0.05 0.245112 -0.710902 -0.192419
401 1 0 0 0.1 0.0314688 -0.728515 1.26746
402 1 0.05 0.05 0.1 1.99883 -2.04921 1.33126
403 1 0.05 0 0.15 -2.18634 1.61144 0.788204
404 1 0 0.05 0.15 1.95068 0.265832 0.314765
405 1 0.1 0 0.1 -1.31642 -0.281903 1.90397
406 1 0.15 0.05 0.1 -0.652909 1.21691 0.0197337
407 1 0.15 0 0.15 -0.694781 0.809917 1.33802
408 1 0.1 0.05 0.15 -0.612394 -1.51863 1.68614
409 1 0.2 0 0.1 -0.508979 0.363538 -0.294142
410 1 0.25 0.05 0.1 -2.22153 0.27248 -1.06954
411 1 0.25 0 0.15 -0.214639 -0.631168 -0.467843
412 1 0.2 0.05 0.15 -1.83837 1.77713 1.70888
413 1 0.3 0 0.1 2.39201 0.575265 2.14413
414 1 0.35 0.05 0.1 0.400109 -2.25681 -0.668883
415 1 0.35 0 0.15 -0.789631 0.249128 -0.0672228
416 1 0.3 0.05 0.15 0.0982348 -0.000694034 1.53473
417 1 0.4 0 0.1 -1.16913 1.24626 1.5842
418 1 0.45 0.05 0.1 0.949978 -2.40167 -0.593723
419 1 0.45 0 0.15 -2.14318 -0.971799 -0.364626
420 1 0.4 0.05 0.15 0.584267 -0.815193 0.332946
421 1 0.5 0 0.1 -0.552724 1.16375 1.22264
422 1 0.55 0.05 0.1 -0.2077 -0.204682 0.228482
423 1 0.55 0 0.15 -0.131817 0.501347 -0.711822
424 1 0.5 0.05 0.15 0.157155 0.694143 1.08864
425 1 0.6 0 0.1 0.925376 0.0854361 -0.0655784
426 1 0.65 0.05 0.1 0.666241 -0.113571 -0.0307501
427 1 0.65 0 0.15 -1.08458 -0.229609 -1.2337
428 1 0.6 0.05 0.15 0.973085 -0.903225 1.0253
429 1 0.7 0 0.1 -0.428603 -0.116221 -0.101838
430 1 0.75 0.05 0.1 0.00938771 -0.206968 -1.13369
431 1 0.75 0 0.15 0.75288 1.03501 -0.996537
432 1 0.7 0.05 0.15 -0.920858 -0.506344 -0.810482
433 1 0.8 0 0.1 -0.789811 0.989211 -0.0123845
434 1 0.85 0.05 0.1 1.21215 0.328084 -0.304877
435 1 0.85 0 0.15 -0.132909 -0.560083 0.11865
436 1 0.8 0.05 0.15 1.06043 -0.178503 0.519215
437 1 0.9 0 0.1 0.651131 0.37261 -0.448816
438 1 0.95 0.05 0.1 0.978022 0.539818 1.11739
439 1 0.95 0 0.15 0.0628623 -0.638011 -0.368829
440 1 0.9 0.05 0.15 0.268982 0.290728 -0.693633
441 1 0 0.1 0.1 0.821127 1.04526 2.38537
442 1 0.05 0.15 0.1 2.03189 -2.32052 0.902306
443 1 0.05 0.1 0.15 0.81992 0.433818 0.472171
444 1 0 0.15 0.15 1.96488 -2.2042 -1.75361
445 1 0.1 0.1 0.1 0.0578307 -0.324838 -1.62337
446 1 0.15 0.15 0.1 0.868223 0.724952 -0.309478
447 1 0.15 0.1 0.15 2.45471 1.75294 -1.53195
448 1 0.1 0.15 0.15 1.66787 -1.75393 1.36009
449 1 0.2 0.1 0.1 -1.59445 -0.526403 -0.497576
450 1 0.25 0.15 0.1 -0.783543 -0.72155 0.285137
451 1 0.25 0.1 0.15 -2.18241 -1.16432 0.26671
452 1 0.2 0.15 0.15 -0.547321 0.266461 1.06084
453 1 0.3 0.1 0.1 0.55324 -0.935913 -2.21212
454 1 0.35 0.15 0.1 -2.06112 1.07259 -0.662483
455 1 0.35 0.1 0.15 0.522177 -1.6482 -2.16382
456 1 0.3 0.15 0.15 1.8543 -1.45293 -0.796856
457 1 0.4 0.1 0.1 0.80072 2.36636 -0.801175
458 1 0.45 0.15 0.1 -1.61792 -1.54381 1.42248
459 1 0.45 0.1 0.15 1.90867 2.35486 -2.32408
460 1 0.4 0.15 0.15 -1.09349 -1.37045 -1.54766
461 1 0.5 0.1 0.1 -0.46105 0.483696 -0.951878
462 1 0.55 0.15 0.1 -1.17608 0.792001 0.584867
463 1 0.55 0.1 0.15 -0.47977 -0.413436 -0.51458
464 1 0.5 0.15 0.15 0.499338 0.96779 0.616538
465 1 0.6 0.1 0.1 0.451698 0.654043 -0.96057
466 1 0.65 0.15 0.1 -0.126841 0.130966 -0.628743
467 1 0.65 0.1 0.15 0.388586 -0.32048 0.585567
468 1 0.6 0.15 0.15 0.0321213 -1.01609 -1.1542
469 1 0.7 0.1 0.1 -1.12116 0.0500858 1.13602
470 1 0.75 0.15 0.1 0.296195 0.671318 0.354715
471 1 0.75 0.1 0.15 0.0110377 0.351437 -0.578227
472 1 0.7 0.15 0.15 1.03752 0.121014 0.0892454
473 1 0.8 0.1 0.1 -0.602067 -0.596921 1.03252
474 1 0.85 0.15 0.1 -1.21577 0.679705 0.51223
475 1 0.85 0.1 0.15 0.148136 -0.193614 0.97713
476 1 0.8 0.15 0.15 0.485662 0.861567 -1.13494
477 1 0.9 0.1 0.1 0.39814 -0.319262 -1.16565
478 1 0.95 0.15 0.1 0.338249 0.97703 0.287822
479 1 0.95 0.1 0.15 -0.596821 1.10837 -0.689297
480 1 0.9 0.15 0.15 1.23913 -0.618183 -0.609601
481 1 0 0.2 0.1 -2.24012 -2.17658 0.180972
482 1 0.05 0.25 0.1 0.357552 0.583621 -0.0516278
483 1 0.05 0.2 0.15 2.49367 -2.38073 2.0794
484 1 0 0.25 0.15 -0.948328 -1.1623 -0.244339
485 1 0.1 0.2 0.1 -1.31201 0.0849604 0.0192211
486 1 0.15 0.25 0.1 1.86638 -0.140908 0.89862
487 1 0.15 0.2 0.15 1.27554 0.0132854 0.401246
488 1 0.1 0.25 0.15 -0.173789 2.2677 -1.51089
489 1 0.2 0.2 0.1 -1.41628 -1.38442 -0.232057
490 1 0.25 0.25 0.1 -0.369558 2.41763 0.0864303
491 1 0.25 0.2 0.15 0.440634 0.0955238 0.494885
492 1 0.2 0.25 0.15 2.42717 1.38281 -0.32227
493 1 0.3 0.2 0.1 0.129563 0.258597 1.68865
494 1 0.35 0.25 0.1 -0.285154 -0.439597 -2.33854
495 1 0.35 0.2 0.15 1.86447 2.24655 2.18001
496 1 0.3 0.25 0.15 -1.76411 0.676635 -0.825992
497 1 0.4 0.2 0.1 -2.1919 1.55366 -1.23386
498 1 0.45 0.25 0.1 2.319 -1.79167 1.5296
499 1 0.45 0.2 0.15 -2.21401 -1.10091 -1.34566
500 1 0.4 0.25 0.15 1.30457 1.01894 -2.23753
501 1 0.5 0.2 0.1 0.554124 0.346536 1.04302
502 1 0.55 0.25 0.1 -0.771474 0.393417 0.945657
503 1 0.55 0.2 0.15 0.337716 -0.582612 -0.576422
504 1 0.5 0.25 0.15 -0.446822 -0.00482407 -0.322448
505 1 0.6 0.2 0.1 0.635722 0.768646 0.822005
506 1 0.65 0.25 0.1 -0.321074 -1.11153 0.478947
507 1 0.65 0.2 0.15 -0.74054 -0.925664 -0.634464
508 1 0.6 0.25 0.15 -0.632464 -0.131783 0.188449
509 1 0.7 0.2 0.1 0.758691 -0.11369 0.445412
510 1 0.75 0.25 0.1 1.18565 -0.387781 0.850844
511 1 0.75 0.2 0.15 0.409819 0.81714 0.681439
512 1 0.7 0.25 0.15 -0.276208 -0.481194 -0.51702
513 1 0.8 0.2 0.1 -1.11796 -0.52343 1.06033
514 1 0.85 0.25 0.1 1.17696 -0.592424 0.0274382
515 1 0.85 0.2 0.15 -1.0835 0.553172 0.76641
516 1 0.8 0.25 0.15 0.130189 -0.461929 -0.34658
517 1 0.9 0.2 0.1 0.138762 0.350864 -0.32636
518 1 0.95 0.25 0.1 0.432276 0.300328 0.0784601
519 1 0.95 0.2 0.15 0.40765 -1.04959 -1.08483
520 1 0.9 0.25 0.15 -0.73662 0.730975 0.0833823
521 1 0 0.3 0.1 -1.43594 -2.38497 -0.337994
522 1 0.05 0.35 0.1 1.35969 -2.1803 1.58477
523 1 0.05 0.3 0.15 -1.00169 2.1085 -1.47406
524 1 0 0.35 0.15 -0.0432304 -1.99011 1.19014
525 1 0.1 0.3 0.1 0.212501 2.27437 2.3786
526 1 0.15 0.35 0.1 -1.92662 -0.900003 1.28535
527 1 0.15 0.3 0.15 -1.98467 2.22313 1.93233
528 1 0.1 0.35 0.15 -0.0587767 2.32077 0.206833
529 1 0.2 0.3 0.1 0.714017 1.00615 -0.930426
530 1 0.25 0.35 0.1 1.15371 -1.48954 -1.27629
531 1 0.25 0.3 0.15 -1.52096 0.104803 -0.939521
532 1 0.2 0.35 0.15 -1.29709 -0.0512151 -1.59811
533 1 0.3 0.3 0.1 -1.66069 -2.31855 -0.433817
534 1 0.35 0.35 0.1 -1.95889 -2.22262 -1.49144
535 1 0.35 0.3 0.15 -0.727319 -0.107667 -1.12989
536 1 0.3 0.35 0.15 2.33691 -0.756666 0.297503
537 1 0.4 0.3 0.1 0.919248 -2.43228 1.32602
538 1 0.45 0.35 0.1 -1.89445 -1.28681 2.43859
539 1 0.45 0.3 0.15 1.37626 0.782619 -0.0505401
540 1 0.4 0.35 0.15 -1.33068 1.04075 0.298989
541 1 0.5 0.3 0.1 -1.00313 0.102953 0.371216
542 1 0.55 0.35 0.1 0.527051 -0.127437 -0.869216
543 1 0.55 0.3 0.15 1.23856 -0.422904 0.92306
544 1 0.5 0.35 0.15 -0.592907 0.189257 0.843314
545 1 0.6 0.3 0.1 -0.751176 0.64368 0.251625
546 1 0.65 0.35 0.1 -0.146872 -0.570948 0.315627
547 1 0.65 0.3 0.15 -0.224358 -1.04891 0.594794
548 1 0.6 0.35 0.15 -1.08568 1.04566 0.104218
549 1 0.7 0.3 0.1 0.697573 0.310524 1.0083
550 1 0.75 0.35 0.1 0.614757 -0.817126 0.503017
551 1 0.75 0.3 0.15 -0.816507 -0.56202 -0.324232
552 1 0.7 0.35 0.15 0.236153 -0.594336 0.00489937
553 1 0.8 0.3 0.1 -0.16519 0.351482 0.175074
554 1 0.85 0.35 0.1 -0.98248 -1.14634 0.833151
555 1 0.85 0.3 0.15 -0.749155 0.0328583 0.615888
556 1 0.8 0.35 0.15 1.03679 0.113317 -0.831176
557 1 0.9 0.3 0.1 0.522301 -0.92249 0.841619
558 1 0.95 0.35 0.1 -0.312204 -0.241938 -0.949325
559 1 0.95 0.3 0.15 -0.0617328 0.0808784 -0.0895279
560 1 0.9 0.35 0.15 0.666935 -0.802702 0.848917
561 1 0 0.4 0.1 2.20651 1.14974 -2.4428
562 1 0.05 0.45 0.1 1.18304 -0.463023 2.3377
563 1 0.05 0.4 0.15 -0.682187 0.983129 0.779284
564 1 0 0.45 0.15 1.85339 -1.97527 -0.310904
565 1 0.1 0.4 0.1 0.385765 -2.32059 -0.289343
566 1 0.15 0.45 0.1 1.1088 1.13935 -0.0966437
567 1 0.15 0.4 0.15 1.74812 -0.745368 -1.63656
568 1 0.1 0.45 0.15 -1.8199 2.41275 1.71159
569 1 0.2 0.4 0.1 -0.357038 1.34742 -0.145876
570 1 0.25 0.45 0.1 -1.99825 0.237692 -0.464648
571 1 0.25 0.4 0.15 1.43845 -1.47842 -1.32392
572 1 0.2 0.45 0.15 1.92173 0.576965 1.2058
573 1 0.3 0.4 0.1 0.163282 1.34268 -1.03886
574 1 0.35 0.45 0.1 -1.45763 1.97142 1.37972
575 1 0.35 0.4 0.15 -0.235526 2.43675 1.74451
576 1 0.3 0.45 0.15 -1.83645 -0.231405 -0.271006
577 1 0.4 0.4 0.1 1.22457 -0.805846 0.024019
578 1 0.45 0.45 0.1 0.184095 1.94395 2.02444
579 1 0.45 0.4 0.15 -0.983932 0.486251 1.30213
580 1 0.4 0.45 0.15 -0.454216 1.00521 -1.95646
581 1 0.5 0.4 0.1 1.14746 0.00994046 0.797897
582 1 0.55 0.45 0.1 0.452248 0.0288897 0.612593
583 1 0.55 0.4 0.15 -1.03065 -0.418957 0.565809
584 1 0.5 0.45 0.15 -0.0241999 0.978772 -0.0753339
585 1 0.6 0.4 0.1 -0.22974 -0.0958881 0.732483
586 1 0.65 0.45 0.1 -0.589265 -0.343513 -1.17136
587 1 0.65 0.4 0.15 0.410683 0.524937 0.523921
588 1 0.6 0.45 0.15 0.129195 0.124297 0.919788
589 1 0.7 0.4 0.1 -0.127854 0.403878 -1.09501
590 1 0.75 0.45 0.1 0.123754 0.080686 -0.851989
591 1 0.75 0.4 0.15 -0.624411 -0.661732 1.12906
592 1 0.7 0.45 0.15 1.00151 0.0501451 -0.337278
593 1 0.8 0.4 0.1 -1.14846 0.56343 0.251801
594 1 0.85 0.45 0.1 0.517026 -0.650817 -0.69288
595 1 0.85 0.4 0.15 0.54798 0.848158 0.773512
596 1 0.8 0.45 0.15 0.856271 -0.335636 0.298572
597 1 0.9 0.4 0.1 -0.638895 0.476894 0.830782
598 1 0.95 0.45 0.1 -0.960881 1.21463 -0.868767
599 1 0.95 0.4 0.15 0.242691 0.594728 0.114285
600 1 0.9 0.45 0.15 -0.97444 0.583772 -1.21618
601 1 0 0.5 0.1 -1.24145 0.565682 -1.51626
602 1 0.05 0.55 0.1 0.347358 1.39464 1.70563
603 1 0.05 0.5 0.15 -1.34109 -1.79889 -1.78386
604 1 0 0.55 0.15 1.21542 -2.18799 0.193967
605 1 0.1 0.5 0.1 -0.705026 0.767031 -1.34489
606 1 0.15 0.55 0.1 2.18834 0.755586 -1.88309
607 1 0.15 0.5 0.15 1.81021 0.153045 -1.6841
608 1 0.1 0.55 0.15 -0.118359 -0.624566 2.27042
609 1 0.2 0.5 0.1 0.324148 -0.130197 -1.06318
610 1 0.25 0.55 0.1 0.908576 0.186222 0.138267
611 1 0.25 0.5 0.15 0.818697 -0.439847 -1.6152
612 1 0.2 0.55 0.15 1.18884 -1.24989 -1.66212
613 1 0.3 0.5 0.1 -1.5568 -2.24598 -0.622853
614 1 0.35 0.55 0.1 2.25163 2.11386 0.00317425
615 1 0.35 0.5 0.15 -1.88418 -0.76995 -1.64244
616 1 0.3 0.55 0.15 -0.303126 -2.45419 1.97432
617 1 0.4 0.5 0.1 1.49787 -1.33023 0.579844
618 1 0.45 0.55 0.1 -2.08007 2.17159 1.30317
619 1 0.45 0.5 0.15 -2.19947 2.18863 -2.38109
620 1 0.4 0.55 0.15 2.36747 1.29287 -2.03486
621 1 0.5 0.5 0.1 -0.625571 -0.397169 1.15159
622 1 0.55 0.55 0.1 0.911952 -0.747279 1.04881
623 1 0.55 0.5 0.15 -0.248341 1.00724 -0.898732
624 1 0.5 0.55 0.15 -0.608679 -0.572916 -0.656078
625 1 0.6 0.5 0.1 0.23655 1.14484 -0.410218
626 1 0.65 0.55 0.1 -1.17074 -0.755862 0.0651117
627 1 0.65 0.5 0.15 1.24115 1.09443 -0.318214
628 1 0.6 0.55 0.15 -1.1772 -0.621662 0.212411
629 1 0.7 0.5 0.1 -1.04077 -0.0404577 1.05951
630 1 0.75 0.55 0.1 0.211903 -0.566383 0.4566
631 1 0.75 0.5 0.15 0.268749 -1.14743 -0.22623
632 1 0.7 0.55 0.15 -1.11619 -0.43585 0.721682
633 1 0.8 0.5 0.1 -0.877828 -1.08241 0.775704
634 1 0.85 0.55 0.1 -0.117054 -0.878719 0.356465
635 1 0.85 0.5 0.15 1.09046 0.585771 0.262867
636 1 0.8 0.55 0.15 1.24057 -1.1708 -0.202048
637 1 0.9 0.5 0.1 -0.544063 0.992766 0.446083
638 1 0.95 0.55 0.1 1.22454 1.04857 -0.315127
639 1 0.95 0.5 0.15 -1.04424 0.849762 0.55443
640 1 0.9 0.55 0.15 0.830261 -0.256624 -0.745303
641 1 0 0.6 0.1 1.17273 -1.56733 -0.458189
642 1 0.05 0.65 0.1 -0.156006 1.12204 -0.852815
643 1 0.05 0.6 0.15 1.82489 0.905349 1.84271
644 1 0 0.65 0.15 1.15632 -1.92943 -2.01666
645 1 0.1 0.6 0.1 -1.53142 1.36882 0.615517
646 1 0.15 0.65 0.1 1.77917 -0.229394 -0.911278
647 1 0.15 0.6 0.15 -1.12546 2.37143 0.752243
648 1 0.1 0.65 0.15 -0.765681 -0.539332 -1.38057
649 1 0.2 0.6 0.1 -0.317873 0.528207 -1.79871
650 1 0.25 0.65 0.1 1.63619 1.87377 -2.06154
651 1 0.25 0.6 0.15 0.253546 -1.39045 1.59495
652 1 0.2 0.65 0.15 -0.939676 1.62149 -2.38987