4000
Timestep: 0
1 0 0 0 3.1963114741810004
1 0.05 0.05 0 4.24679717145
1 0.05 0 0.05 2.2439362965505003
1 0 0.05 0.05 4.906010531618
1 0.1 0 0 0.8043235867025
1 0.15 0.05 0 2.8309314447664997
1 0.15 0 0.05 4.937939712502
1 0.1 0.05 0.05 4.01109369145
1 0.2 0 0 4.65464182425
1 0.25 0.05 0 3.609279403858
1 0.25 0 0.05 5.4250079475245006
1 0.2 0.05 0.05 0.5785281580845001
1 0.3 0 0 2.5540688235144997
1 0.35 0.05 0 2.980630413308
1 0.35 0 0.05 3.956816593228
1 0.3 0.05 0.05 3.4680316432745
1 0.4 0 0 7.1616571030500005
1 0.45 0.05 0 2.2131571310550004
1 0.45 0 0.05 4.457042278299999
1 0.4 0.05 0.05 5.1455110955
1 0.5 0 0 0.575205032212
1 0.55 0.05 0 0.184251645219
1 0.55 0 0.05 0.9903006275080002
1 0.5 0.05 0.05 0.515086410461
1 0.6 0 0 0.7174634622676801
1 0.65 0.05 0 1.5240517447765
1 0.65 0 0.05 0.39724560153362504
1 0.6 0.05 0.05 1.030193773687
1 0.7 0 0 1.2230154223810001
1 0.75 0.05 0 0.9053909427285
1 0.75 0 0.05 1.4851866233525
1 0.7 0.05 0.05 0.961104078135
1 0.8 0 0 0.749462665845625
1 0.85 0.05 0 0.45116335529142004
1 0.85 0 0.05 0.412736621931
1 0.8 0.05 0.05 0.4207411188065
1 0.9 0 0 0.469764707263
1 0.95 0.05 0 1.3503444682245
1 0.95 0 0.05 0.486232739635
1 0.9 0.05 0.05 1.339925765669
1 0 0.1 0 1.8432627750465
1 0.05 0.15 0 2.808546735968
1 0.05 0.1 0.05 1.995645435996
1 0 0.15 0.05 1.49767536463168
1 0.1 0.1 0 2.3759573482604996
1 0.15 0.15 0 4.3638787135
1 0.15 0.1 0.05 1.653274357958
1 0.1 0.15 0.05 1.082405940028
1 0.2 0.1 0 2.2869438156804995
1 0.25 0.15 0 5.5273274188
1 0.25 0.1 0.05 4.0271415918499995
1 0.2 0.15 0.05 5.435662601650001
1 0.3 0.1 0 1.7680458308205003
1 0.35 0.15 0 2.3030837504505
1 0.35 0.1 0.05 7.442505708700001
1 0.3 0.15 0.05 2.8726016773000005
1 0.4 0.1 0 3.1316138485605
1 0.45 0.15 0 5.1523609489
1 0.45 0.1 0.05 3.2983017532999996
1 0.4 0.15 0.05 1.6562145460125002
1 0.5 0.1 0 1.4391540577750002
1 0.55 0.15 0 0.3736368154921465
1 0.55 0.1 0.05 1.1127025722340003
1 0.5 0.15 0.05 0.9986745666465
1 0.6 0.1 0 0.23730459870560502
1 0.65 0.15 0 0.1832778888345
1 0.65 0.1 0.05 0.628364273567938
1 0.6 0.15 0.05 0.391546949179
1 0.7 0.1 0 1.30500610533
1 0.75 0.15 0 1.5137183406480001
1 0.75 0.1 0.05 0.164516739356
1 0.7 0.15 0.05 0.4300128477745
1 0.8 0.1 0 1.41967531665
1 0.85 0.15 0 0.7279089086815
1 0.85 0.1 0.05 0.7080643362265
1 0.8 0.15 0.05 1.179713777868
1 0.9 0.1 0 0.5598294011830001
1 0.95 0.15 0 1.1063742297724999
1 0.95 0.1 0.05 1.5013067892085
1 0.9 0.15 0.05 0.6965561169700001
1 0 0.2 0 2.3030897391250007
1 0.05 0.25 0 2.9880476716499995
1 0.05 0.2 0.05 5.097703650150001
1 0 0.25 0.05 2.6466408844259997
1 0.1 0.2 0 6.0376267593
1 0.15 0.25 0 1.9243776384249998
1 0.15 0.2 0.05 1.8903210131125003
1 0.1 0.25 0.05 2.3221120898505
1 0.2 0.2 0 3.616844797732
1 0.25 0.25 0 1.6938302556079048
1 0.25 0.2 0.05 0.069737848066205
1 0.2 0.25 0.05 2.605443191728
1 0.3 0.2 0 2.956658880572
1 0.35 0.25 0 3.8336864840000002
1 0.35 0.2 0.05 2.210706912267
1 0.3 0.25 0.05 1.1302106315845002
1 0.4 0.2 0 3.4303188601105
1 0.45 0.25 0 0.10049395454029045
1 0.45 0.2 0.05 1.6747360048608022
1 0.4 0.25 0.05 2.5207839290445
1 0.5 0.2 0 0.77420670314028
1 0.55 0.25 0 0.589652432153
1 0.55 0.2 0.05 0.7418913079824998
1 0.5 0.25 0.05 0.3580937489485
1 0.6 0.2 0 1.2393526643000001
1 0.65 0.25 0 1.1272140933645
1 0.65 0.2 0.05 0.1332945917545
1 0.6 0.25 0.05 0.801069475472605
1 0.7 0.2 0 1.0119823667695
1 0.75 0.25 0 0.47952534870850005
1 0.75 0.2 0.05 1.01655770760072
1 0.7 0.25 0.05 0.23601410196699998
1 0.8 0.2 0 0.341395694101
1 0.85 0.25 0 1.0171738162764998
1 0.85 0.2 0.05 0.891732483205
1 0.8 0.25 0.05 0.6402461307805
1 0.9 0.2 0 0.9638927173210001
1 0.95 0.25 0 1.065496032175945
1 0.95 0.2 0.05 0.827609380784
1 0.9 0.25 0.05 1.2774860071965
1 0 0.3 0 1.7010832133784999
1 0.05 0.35 0 4.497609729800001
1 0.05 0.3 0.05 2.4400509018500003
1 0 0.35 0.05 5.6096619525345
1 0.1 0.3 0 3.5342275515045003
1 0.15 0.35 0 2.9565165093525003
1 0.15 0.3 0.05 2.88735433425
1 0.1 0.35 0.05 3.9733195087
1 0.2 0.3 0 1.575116537205
1 0.25 0.35 0 2.2520685189220004
1 0.25 0.3 0.05 3.485888558722
1 0.2 0.35 0.05 0.9308507209643199
1 0.3 0.3 0 2.7323605312605
1 0.35 0.35 0 3.346488915675
1 0.35 0.3 0.05 3.9843104323
1 0.3 0.35 0.05 4.0638743589145
1 0.4 0.3 0 1.5414179775045
1 0.45 0.35 0 1.216800533618
1 0.45 0.3 0.05 0.8653479741025001
1 0.4 0.35 0.05 0.41466675269849995
1 0.5 0.3 0 0.8618276311625
1 0.55 0.35 0 1.122286544625045
1 0.55 0.3 0.05 0.9979988368665
1 0.5 0.35 0.05 0.13020868188761997
1 0.6 0.3 0 0.7279641234130001
1 0.65 0.35 0 0.7128913212325001
1 0.65 0.3 0.05 0.4706719025125
1 0.6 0.35 0.05 0.352173845707
1 0.7 0.3 0 0.7387772041225
1 0.75 0.35 0 0.9147125685175199
1 0.75 0.3 0.05 0.7991747616229999
1 0.7 0.35 0.05 1.114460479925
1 0.8 0.3 0 0.8649551468125
1 0.85 0.35 0 0.07577514996250001
1 0.85 0.3 0.05 0.7080465150445
1 0.8 0.35 0.05 0.480307031467
1 0.9 0.3 0 0.6110888621789999
1 0.95 0.35 0 1.1655120369245
1 0.95 0.3 0.05 0.7971806192944999
1 0.9 0.35 0.05 0.2733481080615
1 0 0.4 0 0.4097171374725
1 0.05 0.45 0 5.5479412582
1 0.05 0.4 0.05 3.1377895728505
1 0 0.45 0.05 5.99953529265
1 0.1 0.4 0 4.5074418624999995
1 0.15 0.45 0 1.9195629873625002
1 0.15 0.4 0.05 4.533129164650001
1 0.1 0.45 0.05 3.6646649403124996
1 0.2 0.4 0 0.906834775483
1 0.25 0.45 0 0.8238078133764999
1 0.25 0.4 0.05 2.648382064951
1 0.2 0.45 0.05 3.0095764758713797
1 0.3 0.4 0 1.3949844300510001
1 0.35 0.45 0 2.3365071057385
1 0.35 0.4 0.05 1.7675094787
1 0.3 0.45 0.05 4.482522273000001
1 0.4 0.4 0 1.37254080836
1 0.45 0.45 0 3.2392147846085004
1 0.45 0.4 0.05 3.6821452560945005
1 0.4 0.45 0.05 3.2547179480500006
1 0.5 0.4 0 1.3748679287605001
1 0.55 0.45 0 0.8004032096884999
1 0.55 0.4 0.05 0.9140199324645
1 0.5 0.45 0.05 2.0681158518
1 0.6 0.4 0 0.26976414840550006
1 0.65 0.45 0 0.47873282736699996
1 0.65 0.4 0.05 1.386017238602
1 0.6 0.45 0.05 1.0159577024650002
1 0.7 0.4 0 1.2419789187569998
1 0.75 0.45 0 0.8799923302520001
1 0.75 0.4 0.05 0.986361044338
1 0.7 0.45 0.05 0.39713094731899995
1 0.8 0.4 0 0.634026116182
1 0.85 0.45 0 1.524926752357
1 0.85 0.4 0.05 0.24253893987700004
1 0.8 0.45 0.05 1.210120056513
1 0.9 0.4 0 0.151069477811
1 0.95 0.45 0 0.816357302055
1 0.95 0.4 0.05 0.917511583284
1 0.9 0.45 0.05 1.1816587309204998
1 0 0.5 0 5.2189262222499995
1 0.05 0.55 0 3.2488114908125003
1 0.05 0.5 0.05 4.913872408348
1 0 0.55 0.05 1.4157574154819998
1 0.1 0.5 0 5.943699759899999
1 0.15 0.55 0 2.9867386890464998
1 0.15 0.5 0.05 3.3971754643319994
1 0.1 0.55 0.05 1.7353896309880001
1 0.2 0.5 0 5.683502390699999
1 0.25 0.55 0 5.5283548145
1 0.25 0.5 0.05 3.28396023665
1 0.2 0.55 0.05 2.7765577611720005
1 0.3 0.5 0 4.411025512732
1 0.35 0.55 0 2.6202786375424996
1 0.35 0.5 0.05 3.929807681362
1 0.3 0.55 0.05 4.0237394992
1 0.4 0.5 0 5.348213804849999
1 0.45 0.55 0 4.18634389485
1 0.45 0.5 0.05 2.6575622571804995
1 0.4 0.55 0.05 1.3325267991424998
1 0.5 0.5 0 1.2858289439631712
1 0.55 0.55 0 0.45371806622900507
1 0.55 0.5 0.05 0.5524873824505
1 0.5 0.55 0.05 0.5123697087604999
1 0.6 0.5 0 0.9911341210225001
1 0.65 0.55 0 0.8337518003925
1 0.65 0.5 0.05 0.613396867917045
1 0.6 0.55 0.05 0.3320006438095
1 0.7 0.5 0 0.16420923915318497
1 0.75 0.55 0 0.23700458943514496
1 0.75 0.5 0.05 0.7058201546625
1 0.7 0.55 0.05 0.7602490443445
1 0.8 0.5 0 1.3943011511845
1 0.85 0.55 0 1.2435837909674452
1 0.85 0.5 0.05 0.9970054657885
1 0.8 0.55 0.05 1.850632844092
1 0.9 0.5 0 0.446582622555845
1 0.95 0.55 0 1.3807283884905002
1 0.95 0.5 0.05 0.37047298090998004
1 0.9 0.55 0.05 0.642741512047
1 0 0.6 0 2.259486420588
1 0.05 0.65 0 2.021514154522
1 0.05 0.6 0.05 1.1276687866900001
1 0 0.65 0.05 0.809797813569045
1 0.1 0.6 0 2.2023161753549996
1 0.15 0.65 0 4.4809731455
1 0.15 0.6 0.05 3.449788691718
1 0.1 0.65 0.05 1.3585141379380001
1 0.2 0.6 0 4.89105638245
1 0.25 0.65 0 2.2399847930820003
1 0.25 0.6 0.05 1.3773554114980002
1 0.2 0.65 0.05 1.474665777628
1 0.3 0.6 0 3.2038778630579996
1 0.35 0.65 0 3.2560110952380006
1 0.35 0.6 0.05 2.868436076448
1 0.3 0.65 0.05 3.1831717216999995
1 0.4 0.6 0 2.3227990500124998
1 0.45 0.65 0 7.2517184639
1 0.45 0.6 0.05 2.2091001595365
1 0.4 0.65 0.05 3.042616448283
1 0.5 0.6 0 0.8083249041265
1 0.55 0.65 0 0.9453449218585
1 0.55 0.6 0.05 0.9368476211005001
1 0.5 0.65 0.05 0.613291562515
1 0.6 0.6 0 0.34921015552699997
1 0.65 0.65 0 0.8041952570485
1 0.65 0.6 0.05 0.9275796440817199
1 0.6 0.65 0.05 1.452922181485
1 0.7 0.6 0 0.11909139407292002
1 0.75 0.65 0 0.007068715227230001
1 0.75 0.6 0.05 0.44360893025299997
1 0.7 0.65 0.05 0.5382085059670001
1 0.8 0.6 0 0.282494614103
1 0.85 0.65 0 0.39456231075250003
1 0.85 0.6 0.05 1.1816123389705
1 0.8 0.65 0.05 0.7528225921198113
1 0.9 0.6 0 0.133453025103845
1 0.95 0.65 0 0.7314528422065001
1 0.95 0.6 0.05 0.389409827578
1 0.9 0.65 0.05 0.5511001182685
1 0 0.7 0 4.580657596602
1 0.05 0.75 0 5.353487053699999
1 0.05 0.7 0.05 2.638662427700405
1 0 0.75 0.05 1.6484792144665
1 0.1 0.7 0 0.71373458828912
1 0.15 0.75 0 2.9525136820625004
1 0.15 0.7 0.05 6.8552877413500015
1 0.1 0.75 0.05 3.4996024825125
1 0.2 0.7 0 3.401093416868
1 0.25 0.75 0 1.2988212555325003
1 0.25 0.7 0.05 4.1254834738125
1 0.2 0.75 0.05 1.7058373181370001
1 0.3 0.7 0 1.8461585341000002
1 0.35 0.75 0 4.64096571365
1 0.35 0.7 0.05 3.6108133910745006
1 0.3 0.75 0.05 1.5518149606284999
1 0.4 0.7 0 6.6292069462
1 0.45 0.75 0 5.8815670906
1 0.45 0.7 0.05 4.957280133449999
1 0.4 0.75 0.05 3.5412148678505004
1 0.5 0.7 0 0.615499538721
1 0.55 0.75 0 0.417075347989
1 0.55 0.7 0.05 0.081709133189205
1 0.5 0.75 0.05 1.162720873512
1 0.6 0.7 0 1.0815049279845002
1 0.65 0.75 0 0.7592587330364999
1 0.65 0.7 0.05 1.4927778666145
1 0.6 0.75 0.05 1.276646288362
1 0.7 0.7 0 0.25320582495082006
1 0.75 0.75 0 0.6963400972625
1 0.75 0.7 0.05 0.8975404008005
1 0.7 0.75 0.05 0.8584537365945
1 0.8 0.7 0 0.16396164121975046
1 0.85 0.75 0 0.8312983677624999
1 0.85 0.7 0.05 0.344278543022948
1 0.8 0.75 0.05 1.0967856936
1 0.9 0.7 0 0.47010836415347995
1 0.95 0.75 0 0.767136451639305
1 0.95 0.7 0.05 0.958846221149
1 0.9 0.75 0.05 0.7169579110335
1 0 0.8 0 2.2381596594899995
1 0.05 0.85 0 1.2056973290485
1 0.05 0.8 0.05 3.7059346855419997
1 0 0.85 0.05 2.0901912735845
1 0.1 0.8 0 4.857796931899999
1 0.15 0.85 0 5.2830235320179995
1 0.15 0.8 0.05 4.0132312871805
1 0.1 0.85 0.05 1.047042622024
1 0.2 0.8 0 3.4900189820105005
1 0.25 0.85 0 2.8802543414304997
1 0.25 0.8 0.05 3.527022151848
1 0.2 0.85 0.05 2.9591856315045
1 0.3 0.8 0 3.362659736442
1 0.35 0.85 0 3.6862593352560005
1 0.35 0.8 0.05 0.329692696899
1 0.3 0.85 0.05 2.1807331696000003
1 0.4 0.8 0 3.8951997779804994
1 0.45 0.85 0 3.3134151856168197
1 0.45 0.8 0.05 0.9304617442600001
1 0.4 0.85 0.05 1.84215780982
1 0.5 0.8 0 0.6979276855805
1 0.55 0.85 0 1.8652178829500001
1 0.55 0.8 0.05 0.913745010685
1 0.5 0.85 0.05 0.9154693532105
1 0.6 0.8 0 0.5599612859325
1 0.65 0.85 0 1.3014495589125001
1 0.65 0.8 0.05 0.489109303369
1 0.6 0.85 0.05 0.22960543488899998
1 0.7 0.8 0 1.1197454008105001
1 0.75 0.85 0 0.40814655009
1 0.75 0.8 0.05 0.091448475808405
1 0.7 0.85 0.05 0.8455264201104999
1 0.8 0.8 0 0.21362076099988
1 0.85 0.85 0 0.307368597426245
1 0.85 0.8 0.05 0.7519327838259999
1 0.8 0.85 0.05 0.909473697836
1 0.9 0.8 0 0.5497232020640049
1 0.95 0.85 0 0.4063598556505
1 0.95 0.8 0.05 1.0880808938905802
1 0.9 0.85 0.05 0.5717731612008051
1 0 0.9 0 5.6606800670999995
1 0.05 0.95 0 4.99041399895
1 0.05 0.9 0.05 4.362440933249999
1 0 0.95 0.05 2.2103063543344996
1 0.1 0.9 0 2.910826832869
1 0.15 0.95 0 6.998177557250001
1 0.15 0.9 0.05 3.7353960251505005
1 0.1 0.95 0.05 2.0284458029279997
1 0.2 0.9 0 3.870857058522
1 0.25 0.95 0 2.4371373723478045
1 0.25 0.9 0.05 2.9271517495445005
1 0.2 0.95 0.05 4.7640385452044995
1 0.3 0.9 0 1.669308150612
1 0.35 0.95 0 1.5261331769825
1 0.35 0.9 0.05 1.9251357043885002
1 0.3 0.95 0.05 6.018187386300001
1 0.4 0.9 0 3.3202380620125003
1 0.45 0.95 0 1.90561129334232
1 0.45 0.9 0.05 1.4488811111364999
1 0.4 0.95 0.05 3.5075766408305
1 0.5 0.9 0 0.447894931142
1 0.55 0.95 0 1.0804725321545
1 0.55 0.9 0.05 1.399102107511
1 0.5 0.95 0.05 0.3238433022505
1 0.6 0.9 0 0.9666091661805
1 0.65 0.95 0 0.6219444154785001
1 0.65 0.9 0.05 0.852485135835
1 0.6 0.95 0.05 0.6176929569530001
1 0.7 0.9 0 0.648423944753
1 0.75 0.95 0 1.0823856538659997
1 0.75 0.9 0.05 0.4169522273295
1 0.7 0.95 0.05 0.085200695517945
1 0.8 0.9 0 0.48958190481099995
1 0.85 0.95 0 0.7921195949055
1 0.85 0.9 0.05 0.35300576830312497
1 0.8 0.95 0.05 0.50085329260738
1 0.9 0.9 0 0.691520033274
1 0.95 0.95 0 0.9700686510604999
1 0.95 0.9 0.05 0.7431888810414999
1 0.9 0.95 0.05 0.3012433088545
1 0 0 0.1 1.06908962109922
1 0.05 0.05 0.1 4.983418090300001
1 0.05 0 0.15 3.9990435074079995
1 0 0.05 0.15 1.9874480599244997
1 0.1 0 0.1 2.7187663393544996
1 0.15 0.05 0.1 0.953774764648345
1 0.15 0 0.15 1.4644918526250001
1 0.1 0.05 0.15 2.7621657938679998
1 0.2 0 0.1 0.23886950802449997
1 0.25 0.05 0.1 3.07667835145
1 0.25 0 0.15 0.33166000859699996
1 0.2 0.05 0.15 4.7290330741
1 0.3 0 0.1 5.3249675586125
1 0.35 0.05 0.1 2.8503415278350004
1 0.35 0 0.15 0.34505039069241994
1 0.3 0.05 0.15 1.1825233652571165
1 0.4 0 0.1 2.71485929225
1 0.45 0.05 0.1 3.5114919950565007
1 0.45 0 0.15 2.8352829643385
1 0.4 0.05 0.15 0.558380296727
1 0.5 0 0.1 1.577333226138
1 0.55 0.05 0.1 0.068619017724
1 0.55 0 0.15 0.3877075477909999
1 0.5 0.05 0.15 0.845834624037
1 0.6 0 0.1 0.433960297552885
1 0.65 0.05 0.1 0.228860505386005
1 0.65 0 0.15 1.3755248796405002
1 0.6 0.05 0.15 1.406974953925
1 0.7 0 0.1 0.10378941534700001
1 0.75 0.05 0.1 0.6640884491115222
1 0.75 0 0.15 1.3155799934345
1 0.7 0.05 0.15 0.880622387412
1 0.8 0 0.1 0.8012465970411251
1 0.85 0.05 0.1 0.8349483593425001
1 0.85 0 0.15 0.172717795835
1 0.8 0.05 0.15 0.712979661067
1 0.9 0 0.1 0.3821227965585
1 0.95 0.05 0.1 1.248245458854
1 0.95 0 0.15 0.27352226806164504
1 0.9 0.05 0.15 0.31900041249850003
1 0 0.1 0.1 3.7284040273145003
1 0.05 0.15 0.1 5.163773080068001
1 0.05 0.1 0.15 0.5417061583825
1 0 0.15 0.15 5.89719954325
1 0.1 0.1 0.1 1.3720971365032448
1 0.15 0.15 0.1 0.6875716062585
1 0.15 0.1 0.15 5.7226353151
1 0.1 0.15 0.15 3.85395279495
1 0.2 0.1 0.1 1.5334763983424997
1 0.25 0.15 0.1 0.6079385720589999
1 0.25 0.1 0.15 3.0948443473
1 0.2 0.15 0.15 0.747971623581
1 0.3 0.1 0.1 3.0377412677845004
1 0.35 0.15 0.1 2.9187743438944995
1 0.35 0.1 0.15 3.8356745258644995
1 0.3 0.15 0.15 3.0922067798180004
1 0.4 0.1 0.1 3.4413467743124992
1 0.45 0.15 0.1 3.51223189645
1 0.45 0.1 0.15 7.2948673174500005
1 0.4 0.15 0.15 2.7345525291
1 0.5 0.1 0.1 0.6763003249
1 0.55 0.15 0.1 1.176249579045
1 0.55 0.1 0.15 0.332950577698
1 0.5 0.15 0.15 0.7830375138940001
1 0.6 0.1 0.1 0.7772490269765
1 0.65 0.15 0.1 0.21427924624300002
1 0.65 0.1 0.15 0.29829761064249993
1 0.6 0.15 0.15 1.1828241530068448
1 0.7 0.1 0.1 1.27502488668082
1 0.75 0.15 0.1 0.33211103318699997
1 0.75 0.1 0.15 0.22898812965964502
1 0.7 0.15 0.15 0.54952844000858
1 0.8 0.1 0.1 0.8924484515650002
1 0.85 0.15 0.1 1.1012375764125
1 0.85 0.1 0.15 0.5071068461960001
1 0.8 0.15 0.15 1.1331270386665
1 0.9 0.1 0.1 0.809591803372
1 0.95 0.15 0.1 0.5759207552925
1 0.95 0.1 0.15 1.0299048585750001
1 0.9 0.15 0.15 1.144603378795
1 0 0.2 0.1 4.894194487791999
1 0.05 0.25 0.1 0.23556116703891994
1 0.05 0.2 0.15 8.105084880899998
1 0 0.25 0.15 1.1549844162525
1 0.1 0.2 0.1 0.8644789801766849
1 0.15 0.25 0.1 2.155373636632
1 0.15 0.2 0.15 0.8940885729845799
1 0.1 0.25 0.15 3.7277272493105
1 0.2 0.2 0.1 1.9881591130245002
1 0.25 0.25 0.1 2.994489064511045
1 0.25 0.2 0.15 0.22409714077372
1 0.2 0.25 0.15 3.95358782895
1 0.3 0.2 0.1 1.4675989009389998
1 0.35 0.25 0.1 2.8716638288625
1 0.35 0.2 0.15 6.637839441750001
1 0.3 0.25 0.15 2.1260908996945003
1 0.4 0.2 0.1 4.3703477526
1 0.45 0.25 0.1 5.46375927445
1 0.45 0.2 0.15 3.9623219719000002
1 0.4 0.25 0.15 3.8733410547
1 0.5 0.2 0.1 0.7575156635360001
1 0.55 0.25 0.1 0.822108115107
1 0.55 0.2 0.15 0.392875580642
1 0.5 0.25 0.15 0.15182294201968244
1 0.6 0.2 0.1 0.8353256773125
1 0.65 0.25 0.1 0.7839888415924999
1 0.65 0.2 0.15 0.9038989498960001
1 0.6 0.25 0.15 0.226445247993
1 0.7 0.2 0.1 0.39346464966249994
1 0.75 0.25 0.1 1.1400377693985002
1 0.75 0.2 0.15 0.650014251541
1 0.7 0.25 0.15 0.28757410265000005
1 0.8 0.2 0.1 1.3240566177000002
1 0.85 0.25 0.1 0.8684769460976199
1 0.85 0.2 0.15 1.033677899842
1 0.8 0.25 0.15 0.17522263658099999
1 0.9 0.2 0.1 0.12443564436999999
1 0.95 0.25 0.1 0.14160771752600498
1 0.95 0.2 0.15 1.22233690975
1 0.9 0.25 0.15 0.5419430414891451
1 0 0.3 0.1 3.932122764268
1 0.05 0.35 0.1 4.5569804695
1 0.05 0.3 0.15 3.811003994849999
1 0 0.35 0.15 2.68941994959208
1 0.1 0.3 0.1 5.4378267659505
1 0.15 0.35 0.1 3.0869973234545
1 0.15 0.3 0.15 6.307560617349999
1 0.1 0.35 0.15 2.7161039916259453
1 0.2 0.3 0.1 1.1939253201325002
1 0.25 0.35 0.1 2.5893461699
1 0.25 0.3 0.15 1.6035013499250002
1 0.2 0.35 0.15 2.1195105133340046
1 0.3 0.3 0.1 4.1608812840445
1 0.35 0.35 0.1 5.5008414850500005
1 0.35 0.3 0.15 0.908618261375
1 0.3 0.35 0.15 3.0610999093325
1 0.4 0.3 0.1 4.259665962152
1 0.45 0.35 0.1 5.5957709833500004
1 0.45 0.3 0.15 1.2545691942345052
1 0.4 0.35 0.15 1.4716321235105
1 0.5 0.3 0.1 0.5773352178825
1 0.55 0.35 0.1 0.524779700113
1 0.55 0.3 0.15 1.282459215208
1 0.5 0.35 0.15 0.549267712647
1 0.6 0.3 0.1 0.5209522330005
1 0.65 0.35 0.1 0.2235867031085
1 0.65 0.3 0.15 0.75216430135
1 0.6 0.35 0.15 1.1414836447620003
1 0.7 0.3 0.1 0.7998510674525
1 0.75 0.35 0.1 0.6493235856070001
1 0.75 0.3 0.15 0.5438382756365
1 0.7 0.35 0.15 0.20451376206569843
1 0.8 0.3 0.1 0.09073911895
1 0.85 0.35 0.1 1.4867514674005
1 0.85 0.3 0.15 0.470815455223945
1 0.8 0.35 0.15 0.8893138947825001
1 0.9 0.3 0.1 0.916054337931
1 0.95 0.35 0.1 0.5286116445425
1 0.95 0.3 0.15 0.009183749530405
1 0.9 0.35 0.15 0.904896433959
1 0 0.4 0.1 6.07893014385
1 0.05 0.45 0.1 3.5394076150645
1 0.05 0.4 0.15 1.019602643133
1 0 0.45 0.15 3.7167036811080005
1 0.1 0.4 0.1 2.8088359774870004
1 0.15 0.45 0.1 1.268447933624845
1 0.15 0.4 0.15 3.144912811712
1 0.1 0.45 0.15 6.0314694503
1 0.2 0.4 0.1 0.9821482986100001
1 0.25 0.45 0.1 2.1326991566339997
1 0.25 0.4 0.15 3.0038141326500005
1 0.2 0.45 0.15 2.7399442220625
1 0.3 0.4 0.1 1.454340346762
1 0.35 0.45 0.1 3.95740465585
1 0.35 0.4 0.15 4.518269099637999
1 0.3 0.45 0.15 1.7497705642805
1 0.4 0.4 0.1 1.0747681864885
1 0.45 0.45 0.1 3.9555949425624997
1 0.45 0.4 0.15 1.4500523762625002
1 0.4 0.45 0.15 2.522247525178
1 0.5 0.4 0.1 0.9767014434770058
1 0.55 0.45 0.1 0.29031652595954505
1 0.55 0.4 0.15 0.7789521074150001
1 0.5 0.45 0.15 0.48212772981660995
1 0.6 0.4 0.1 0.299253170305305
1 0.65 0.45 0.1 0.918659335497
1 0.65 0.4 0.15 0.35935629734950003
1 0.6 0.45 0.15 0.439075528589
1 0.7 0.4 0.1 0.68925549215
1 0.75 0.45 0.1 0.3738552696165
1 0.75 0.4 0.15 1.0512774101725
1 0.7 0.45 0.15 0.5596466302190048
1 0.8 0.4 0.1 0.8499087400505
1 0.85 0.45 0.1 0.5854806732825
1 0.85 0.4 0.15 0.8089874437539999
1 0.8 0.45 0.15 0.4674983945605
1 0.9 0.4 0.1 0.6629067198925
1 0.95 0.45 0.1 1.576687216675
1 0.95 0.4 0.15 0.21283068834500002
1 0.9 0.45 0.15 1.384708426992
1 0 0.5 0.1 2.0801193076119997
1 0.05 0.55 0.1 2.487426003332
1 0.05 0.5 0.15 4.1083420599
1 0 0.55 0.15 3.1510846067945004
1 0.1 0.5 0.1 1.4470636638685
1 0.15 0.55 0.1 4.452885053548
1 0.15 0.5 0.15 3.0682379130625
1 0.1 0.55 0.15 2.7794492588185005
1 0.2 0.5 0.1 0.6261874485565
1 0.25 0.55 0.1 0.43965337217450007
1 0.25 0.5 0.15 1.736300600609
1 0.2 0.55 0.15 2.86910422605
1 0.3 0.5 0.1 3.9279991300045
1 0.35 0.55 0.1 4.769125916181531
1 0.35 0.5 0.15 3.4202832142499995
1 0.3 0.55 0.15 5.006436695188
1 0.4 0.5 0.1 2.174672727068
1 0.45 0.55 0.1 5.3703731909500005
1 0.45 0.5 0.15 7.64867957295
1 0.4 0.55 0.15 5.7085411287
1 0.5 0.5 0.1 0.937620909351
1 0.55 0.55 0.1 1.2450423851224999
1 0.55 0.5 0.15 0.9419624388524999
1 0.5 0.55 0.15 0.5645806050905
1 0.6 0.5 0.1 0.7674466678120001
1 0.65 0.55 0.1 0.9730995220604449
1 0.65 0.5 0.15 1.419745248598
1 0.6 0.55 0.15 0.9086909575825
1 0.7 0.5 0.1 1.103700229244645
1 0.75 0.55 0.1 0.287088072049
1 0.75 0.5 0.15 0.7200008214004999
1 0.7 0.55 0.15 0.978335123862
1 0.8 0.5 0.1 1.2719550506500001
1 0.85 0.55 0.1 0.456458008051
1 0.85 0.5 0.15 0.8006648678649999
1 0.8 0.55 0.15 1.4753049796020001
1 0.9 0.5 0.1 0.7402894608070001
1 0.95 0.55 0.1 1.3491511413144999
1 0.95 0.5 0.15 1.059962629572
1 0.9 0.55 0.15 0.655332883653
1 0 0.6 0.1 2.0208780707605
1 0.05 0.65 0.1 1.0053025289304998
1 0.05 0.6 0.15 3.7727302340005
1 0 0.65 0.15 4.56334681145
1 0.1 0.6 0.1 2.2988882930445
1 0.15 0.65 0.1 2.02424754471
1 0.15 0.6 0.15 3.7281049937745
1 0.1 0.65 0.15 1.3915599624425001
1 0.2 0.6 0.1 1.807701771539
1 0.25 0.65 0.1 5.2190394503
1 0.25 0.6 0.15 2.270751139558
1 0.2 0.65 0.15 4.611849710988
1 0.3 0.6 0.1 3.8149967119258443
1 0.35 0.65 0.1 0.554189934229
1 0.35 0.6 0.15 0.270563915252625
1 0.3 0.65 0.15 4.937529004723902
1 0.4 0.6 0.1 3.0535245587345
1 0.45 0.65 0.1 5.160534494812
1 0.45 0.6 0.15 3.5471491575000003
1 0.4 0.65 0.15 1.9852350112105
1 0.5 0.6 0.1 0.34433108774421994
1 0.55 0.65 0.1 1.0318325237869999
1 0.55 0.6 0.15 1.211283422693145
1 0.5 0.65 0.15 0.593338832148
1 0.6 0.6 0.1 0.3005856231925
1 0.65 0.65 0.1 1.1985730193620001
1 0.65 0.6 0.15 0.5426583235845
1 0.6 0.65 0.15 1.3695331211219999
1 0.7 0.6 0.1 0.8351873831584999
1 0.75 0.65 0.1 0.9276829446100001
1 0.75 0.6 0.15 0.8511713570925001
1 0.7 0.65 0.15 1.2743109393445
1 0.8 0.6 0.1 1.2549215850745
1 0.85 0.65 0.1 0.6641092237405
1 0.85 0.6 0.15 0.5586192066385
1 0.8 0.65 0.15 0.8048549248864999
1 0.9 0.6 0.1 1.0567783180580002
1 0.95 0.65 0.1 0.15036092326251782
1 0.95 0.6 0.15 0.4193099620305
1 0.9 0.65 0.15 0.648632904586
1 0 0.7 0.1 1.3109160240045
1 0.05 0.75 0.1 3.5784029237480004
1 0.05 0.7 0.15 2.06833760695
1 0 0.75 0.15 6.12847636265
1 0.1 0.7 0.1 3.7388421703944994
1 0.15 0.75 0.1 1.9563148912625001
1 0.15 0.7 0.15 3.1859341916519996
1 0.1 0.75 0.15 0.5876962586280001
1 0.2 0.7 0.1 2.3214990294280002
1 0.25 0.75 0.1 1.4661937767905
1 0.25 0.7 0.15 1.5588375993345
1 0.2 0.75 0.15 5.7936007285
1 0.3 0.7 0.1 1.3275054752314803
1 0.35 0.75 0.1 0.530116897859625
1 0.35 0.7 0.15 2.61902531245
1 0.3 0.75 0.15 3.0902103961355203
1 0.4 0.7 0.1 3.2953591997985003
1 0.45 0.75 0.1 4.63901357775
1 0.45 0.7 0.15 1.9157420546605
1 0.4 0.75 0.15 2.5305832105327206
1 0.5 0.7 0.1 0.2838589414855
1 0.55 0.75 0.1 0.8469983906105001
1 0.55 0.7 0.15 0.7143712110440001
1 0.5 0.75 0.15 1.030735967499
1 0.6 0.7 0.1 0.208529338423
1 0.65 0.75 0.1 0.22596718185050002
1 0.65 0.7 0.15 0.00236675681714
1 0.6 0.75 0.15 0.69938185921708
1 0.7 0.7 0.1 1.0749687671344998
1 0.75 0.75 0.1 0.8906597968885
1 0.75 0.7 0.15 0.4313398775465
1 0.7 0.75 0.15 1.401545854608
1 0.8 0.7 0.1 0.5199697448205449
1 0.85 0.75 0.1 0.920726227624
1 0.85 0.7 0.15 0.5251493680210018
1 0.8 0.75 0.15 1.0287088158739999
1 0.9 0.7 0.1 1.1457698431285
1 0.95 0.75 0.1 0.8220685395045
1 0.95 0.7 0.15 0.44147529769649996
1 0.9 0.75 0.15 0.0755702783085
1 0 0.8 0.1 4.7670884293
1 0.05 0.85 0.1 1.456446495917
1 0.05 0.8 0.15 0.5314498651025
1 0 0.85 0.15 2.5453966695380004
1 0.1 0.8 0.1 4.450493247250001
1 0.15 0.85 0.1 2.5218769204
1 0.15 0.8 0.15 1.1633297044664999
1 0.1 0.85 0.15 3.100132050118
1 0.2 0.8 0.1 2.2415515382019997
1 0.25 0.85 0.1 2.6647497565624993
1 0.25 0.8 0.15 0.37203626796300004
1 0.2 0.85 0.15 5.334576006244499
1 0.3 0.8 0.1 1.757404887965
1 0.35 0.85 0.1 1.5873006464284998
1 0.35 0.8 0.15 1.4597112310505
1 0.3 0.85 0.15 0.7187915580625
1 0.4 0.8 0.1 3.383852797132
1 0.45 0.85 0.1 0.26186209389700005
1 0.45 0.8 0.15 1.7394935699205
1 0.4 0.85 0.15 0.5844333328165
1 0.5 0.8 0.1 1.1015787124599998
1 0.55 0.85 0.1 1.7850105222805
1 0.55 0.8 0.15 0.9438630038384999
1 0.5 0.85 0.15 1.4319013352499999
1 0.6 0.8 0.1 1.5238585153905
1 0.65 0.85 0.1 0.382833956383305
1 0.65 0.8 0.15 0.8940904025379999
1 0.6 0.85 0.15 0.3168371573925
1 0.7 0.8 0.1 1.0841644518420002
1 0.75 0.85 0.1 0.6100461891939999
1 0.75 0.8 0.15 0.4637329850325
1 0.7 0.85 0.15 0.8455537553545002
1 0.8 0.8 0.1 1.044462249202
1 0.85 0.85 0.1 0.7792899180524999
1 0.85 0.8 0.15 0.4397957628925
1 0.8 0.85 0.15 0.3315694212605
1 0.9 0.8 0.1 0.8782306330245
1 0.95 0.85 0.1 0.687752759347
1 0.95 0.8 0.15 0.45970973321200004
1 0.9 0.85 0.15 0.8302712709445
1 0 0.9 0.1 4.399947523850001
1 0.05 0.95 0.1 5.891764527204501
1 0.05 0.9 0.15 1.8147315935765
1 0 0.95 0.15 1.2612901017015004
1 0.1 0.9 0.1 2.4876634205
1 0.15 0.95 0.1 3.8595051256804993
1 0.15 0.9 0.15 2.6556032759205
1 0.1 0.95 0.15 3.0677635928219993
1 0.2 0.9 0.1 3.2567239109125
1 0.25 0.95 0.1 1.155943734217
1 0.25 0.9 0.15 4.7313337947145
1 0.2 0.95 0.15 0.8876187288269998
1 0.3 0.9 0.1 6.3680425028
1 0.35 0.95 0.1 1.7815308918832449
1 0.35 0.9 0.15 4.7611598305000005
1 0.3 0.95 0.15 5.25022872375
1 0.4 0.9 0.1 5.2459801013605
1 0.45 0.95 0.1 7.92132179415
1 0.45 0.9 0.15 2.772019322175
1 0.4 0.95 0.15 5.016493609612501
1 0.5 0.9 0.1 0.6767746444186651
1 0.55 0.95 0.1 0.5306689786885
1 0.55 0.9 0.15 0.4286081539745
1 0.5 0.95 0.15 1.389354537682
1 0.6 0.9 0.1 0.7481713242779999
1 0.65 0.95 0.1 1.2563069945112448
1 0.65 0.9 0.15 1.0033008258
1 0.6 0.95 0.15 1.364229082440045
1 0.7 0.9 0.1 0.7717928754965
1 0.75 0.95 0.1 0.393883923466
1 0.75 0.9 0.15 1.111708920963
1 0.7 0.95 0.15 0.7997531845225
1 0.8 0.9 0.1 1.186014820969
1 0.85 0.95 0.1 0.9855700432524999
1 0.85 0.9 0.15 0.18089610710450002
1 0.8 0.95 0.15 0.6241880476175
1 0.9 0.9 0.1 0.8805587867999999
1 0.95 0.95 0.1 0.7335582167325
1 0.95 0.9 0.15 1.1669853138385
1 0.9 0.95 0.15 0.9966855830124999
1 0 0 0.2 3.4843328702905003
1 0.05 0.05 0.2 2.2727706483624996
1 0.05 0 0.25 1.9382858513398447
1 0 0.05 0.25 4.691512539882
1 0.1 0 0.2 3.6256869927420006
1 0.15 0.05 0.2 2.46122009245
1 0.15 0 0.25 2.7979825954999997
1 0.1 0.05 0.25 3.616997586628
1 0.2 0 0.2 1.8104089192480002
1 0.25 0.05 0.2 3.7068308471080003
1 0.25 0 0.25 3.154171702828
1 0.2 0.05 0.25 1.9389162410625
1 0.3 0 0.2 5.117140110262
1 0.35 0.05 0.2 6.5419138354
1 0.35 0 0.25 2.901818734403125
1 0.3 0.05 0.25 4.682622372700001
1 0.4 0 0.2 3.4967959338565
1 0.45 0.05 0.2 1.3882990974070002
1 0.45 0 0.25 4.7697325056999995
1 0.4 0.05 0.25 2.9895774410250007
1 0.5 0 0.2 0.5582545780095001
1 0.55 0.05 0.2 0.8519213017945
1 0.55 0 0.25 0.230232701108945
1 0.5 0.05 0.25 1.149271460363
1 0.6 0 0.2 0.874128746535
1 0.65 0.05 0.2 0.078673723593
1 0.65 0 0.25 0.715130940288585
1 0.6 0.05 0.25 0.8561362724120001
1 0.7 0 0.2 0.4966280677570001
1 0.75 0.05 0.2 0.7628997827549449
1 0.75 0 0.25 0.613196820133
1 0.7 0.05 0.25 0.2157402238605
1 0.8 0 0.2 0.068939563280725
1 0.85 0.05 0.2 0.878756528788
1 0.85 0 0.25 1.106064281878
1 0.8 0.05 0.25 0.32916630965849997
1 0.9 0 0.2 1.040576068579
1 0.95 0.05 0.2 1.309545281972
1 0.95 0 0.25 1.6326784284500002
1 0.9 0.05 0.25 1.002474587329
1 0 0.1 0.2 7.0662202476500005
1 0.05 0.15 0.2 5.189942876022
1 0.05 0.1 0.25 5.4348824672500005
1 0 0.15 0.25 2.3709274819579997
1 0.1 0.1 0.2 1.1032607048124998
1 0.15 0.15 0.2 1.592471328342
1 0.15 0.1 0.25 3.65658626265
1 0.1 0.15 0.25 1.1227710065091252
1 0.2 0.1 0.2 2.7405382476805
1 0.25 0.15 0.2 0.24153067937749995
1 0.25 0.1 0.25 1.1013264939385001
1 0.2 0.15 0.25 3.0101234506999996
1 0.3 0.1 0.2 2.1346490857
1 0.35 0.15 0.2 3.690301700392
1 0.35 0.1 0.25 4.9128108259
1 0.3 0.15 0.25 1.3726399854105
1 0.4 0.1 0.2 4.136651901815119
1 0.45 0.15 0.2 2.7775678723485004
1 0.45 0.1 0.25 1.8608943224624999
1 0.4 0.15 0.25 1.5315919357865
1 0.5 0.1 0.2 0.9913993481745
1 0.55 0.15 0.2 1.30122036205
1 0.55 0.1 0.25 0.16278874965707998
1 0.5 0.15 0.25 0.7648659392524999
1 0.6 0.1 0.2 0.718604859120125
1 0.65 0.15 0.2 0.7296232952770001
1 0.65 0.1 0.25 1.5118573856305
1 0.6 0.15 0.25 0.879656953135805
1 0.7 0.1 0.2 0.72048608469322
1 0.75 0.15 0.2 1.3426976191745001
1 0.75 0.1 0.25 0.7354023024924999
1 0.7 0.15 0.25 1.9013025804500003
1 0.8 0.1 0.2 0.11816893101754501
1 0.85 0.15 0.2 0.706658077718
1 0.85 0.1 0.25 0.7226124133523947
1 0.8 0.15 0.25 0.6622013504531251
1 0.9 0.1 0.2 0.9446166515396051
1 0.95 0.15 0.2 0.7000411492865001
1 0.95 0.1 0.25 0.52123028913025
1 0.9 0.15 0.25 0.3010140177145
1 0 0.2 0.2 3.7174824958705
1 0.05 0.25 0.2 1.952299276558205
1 0.05 0.2 0.25 2.7835546011279995
1 0 0.25 0.25 2.0547923425379997
1 0.1 0.2 0.2 4.866785290652
1 0.15 0.25 0.2 0.19024520924099997
1 0.15 0.2 0.25 2.72830749265
1 0.1 0.25 0.25 0.3389218110135
1 0.2 0.2 0.2 3.6426090527120003
1 0.25 0.25 0.2 5.053621356649999
1 0.25 0.2 0.25 1.3024614649940802
1 0.2 0.25 0.25 3.3047394018979994
1 0.3 0.2 0.2 4.1773395216205
1 0.35 0.25 0.2 2.5619430523165003
1 0.35 0.2 0.25 5.436101076647246
1 0.3 0.25 0.25 2.2384939908025
1 0.4 0.2 0.2 6.382546907499999
1 0.45 0.25 0.2 0.983882037008545
1 0.45 0.2 0.25 2.3707906157345002
1 0.4 0.25 0.25 5.5159248185145
1 0.5 0.2 0.2 0.4061775841285
1 0.55 0.25 0.2 0.7669443211433801
1 0.55 0.2 0.25 0.13510273087049998
1 0.5 0.25 0.25 0.8657127576695
1 0.6 0.2 0.2 0.42619892232199996
1 0.65 0.25 0.2 0.1597994964085
1 0.65 0.2 0.25 0.686663921107
1 0.6 0.25 0.25 0.26055798316137996
1 0.7 0.2 0.2 0.6127530752324999
1 0.75 0.25 0.2 0.253412280460545
1 0.75 0.2 0.25 0.6701192973585
1 0.7 0.25 0.25 0.7883304572125001
1 0.8 0.2 0.2 1.1395339701729998
1 0.85 0.25 0.2 1.1465508724021802
1 0.85 0.2 0.25 1.2048077985477799
1 0.8 0.25 0.25 0.4998454296885
1 0.9 0.2 0.2 0.9861083460705
1 0.95 0.25 0.2 0.276652333628
1 0.95 0.2 0.25 0.817378904325
1 0.9 0.25 0.25 1.0591004123625
1 0 0.3 0.2 3.0160568493101803
1 0.05 0.35 0.2 3.1650412337105003
1 0.05 0.3 0.25 5.0808930433
1 0 0.35 0.25 6.38506715525
1 0.1 0.3 0.2 0.22300056195027998
1 0.15 0.35 0.2 3.3224808903579994
1 0.15 0.3 0.25 5.5525479729
1 0.1 0.35 0.25 1.1191104291101799
1 0.2 0.3 0.2 0.641295490041125
1 0.25 0.35 0.2 3.5265791553979997
1 0.25 0.3 0.25 2.696827090953
1 0.2 0.35 0.25 5.1155182093
1 0.3 0.3 0.2 3.4353120911244996
1 0.35 0.35 0.2 2.7989200607640004
1 0.35 0.3 0.25 3.0212996641
1 0.3 0.35 0.25 2.6665651066005
1 0.4 0.3 0.2 1.412358862588
1 0.45 0.35 0.2 2.62827186595728
1 0.45 0.3 0.25 3.3955581889